Program Version,EnergyPlus, Version 8.8.0-7c3bbe4830, YMD=2019.09.19 10:42
1,5,Environment Title[],Latitude[deg],Longitude[deg],Time Zone[],Elevation[m]
2,6,Day of Simulation[],Month[],Day of Month[],DST Indicator[1=yes 0=no],Hour[],StartMinute[],EndMinute[],DayType
3,3,Cumulative Day of Simulation[],Month[],Day of Month[],DST Indicator[1=yes 0=no],DayType  ! When Daily Report Variables Requested
4,2,Cumulative Days of Simulation[],Month[]  ! When Monthly Report Variables Requested
5,1,Cumulative Days of Simulation[] ! When Run Period Report Variables Requested
6,1,Environment,Site Outdoor Air Drybulb Temperature [C] !TimeStep
7,1,Environment,Site Outdoor Air Dewpoint Temperature [C] !TimeStep
8,1,Environment,Site Outdoor Air Wetbulb Temperature [C] !TimeStep
9,1,Environment,Site Diffuse Solar Radiation Rate per Area [W/m2] !TimeStep
10,1,Environment,Site Direct Solar Radiation Rate per Area [W/m2] !TimeStep
11,1,Environment,Site Solar Azimuth Angle [deg] !TimeStep
12,1,Environment,Site Solar Altitude Angle [deg] !TimeStep
End of Data Dictionary
1,DENVER_STAPLETON ANN HTG 99.6% CONDNS DB,  41.28,   2.07,   1.00,   6.00
2,1,12,21, 0, 1, 0.00,15.00,WinterDesignDay
6,-20.0
7,-20.000008273788539
8,-20.0000019693208
9,0.0
10,0.0
11,24.566267809789268
12,-70.81070120439428
2,1,12,21, 0, 1,15.00,30.00,WinterDesignDay
6,-20.0
7,-20.000008273788539
8,-20.0000019693208
9,0.0
10,0.0
11,14.240820522084116
12,-71.74922721358216
2,1,12,21, 0, 1,30.00,45.00,WinterDesignDay
6,-20.0
7,-20.000008273788539
8,-20.0000019693208
9,0.0
10,0.0
11,3.2028719954316204
12,-72.17780520242836
2,1,12,21, 0, 1,45.00,60.00,WinterDesignDay
6,-20.0
7,-20.000008273788539
8,-20.0000019693208
9,0.0
10,0.0
11,8.008202607123748
12,-72.05930543765426
2,1,12,21, 0, 2, 0.00,15.00,WinterDesignDay
6,-20.0
7,-20.000008273788539
8,-20.0000019693208
9,0.0
10,0.0
11,18.795621833720156
12,-71.40432769257302
2,1,12,21, 0, 2,15.00,30.00,WinterDesignDay
6,-20.0
7,-20.000008273788539
8,-20.0000019693208
9,0.0
10,0.0
11,28.69845426077438
12,-70.26698672006592
2,1,12,21, 0, 2,30.00,45.00,WinterDesignDay
6,-20.0
7,-20.000008273788539
8,-20.0000019693208
9,0.0
10,0.0
11,37.490338946341527
12,-68.72580606189242
2,1,12,21, 0, 2,45.00,60.00,WinterDesignDay
6,-20.0
7,-20.000008273788539
8,-20.0000019693208
9,0.0
10,0.0
11,45.152047235001948
12,-66.86309484327797
2,1,12,21, 0, 3, 0.00,15.00,WinterDesignDay
6,-20.0
7,-20.000008273788539
8,-20.0000019693208
9,0.0
10,0.0
11,51.78696875214226
12,-64.75203972463652
2,1,12,21, 0, 3,15.00,30.00,WinterDesignDay
6,-20.0
7,-20.000008273788539
8,-20.0000019693208
9,0.0
10,0.0
11,57.54587768632864
12,-62.45211290443262
2,1,12,21, 0, 3,30.00,45.00,WinterDesignDay
6,-20.0
7,-20.000008273788539
8,-20.0000019693208
9,0.0
10,0.0
11,62.582278182619948
12,-60.009445656610697
2,1,12,21, 0, 3,45.00,60.00,WinterDesignDay
6,-20.0
7,-20.000008273788539
8,-20.0000019693208
9,0.0
10,0.0
11,67.03272811163734
12,-57.459117590632718
2,1,12,21, 0, 4, 0.00,15.00,WinterDesignDay
6,-20.0
7,-20.000008273788539
8,-20.0000019693208
9,0.0
10,0.0
11,71.01135022196226
12,-54.82771223049964
2,1,12,21, 0, 4,15.00,30.00,WinterDesignDay
6,-20.0
7,-20.000008273788539
8,-20.0000019693208
9,0.0
10,0.0
11,74.61076114187046
12,-52.13550959747887
2,1,12,21, 0, 4,30.00,45.00,WinterDesignDay
6,-20.0
7,-20.000008273788539
8,-20.0000019693208
9,0.0
10,0.0
11,77.90523851714501
12,-49.398184397522268
2,1,12,21, 0, 4,45.00,60.00,WinterDesignDay
6,-20.0
7,-20.000008273788539
8,-20.0000019693208
9,0.0
10,0.0
11,80.9542363321264
12,-46.628063091708607
2,1,12,21, 0, 5, 0.00,15.00,WinterDesignDay
6,-20.0
7,-20.000008273788539
8,-20.0000019693208
9,0.0
10,0.0
11,83.80553092682092
12,-43.83503743224355
2,1,12,21, 0, 5,15.00,30.00,WinterDesignDay
6,-20.0
7,-20.000008273788539
8,-20.0000019693208
9,0.0
10,0.0
11,86.49780673692314
12,-41.02722565343635
2,1,12,21, 0, 5,30.00,45.00,WinterDesignDay
6,-20.0
7,-20.000008273788539
8,-20.0000019693208
9,0.0
10,0.0
11,89.06269942752746
12,-38.21145310258492
2,1,12,21, 0, 5,45.00,60.00,WinterDesignDay
6,-20.0
7,-20.000008273788539
8,-20.0000019693208
9,0.0
10,0.0
11,91.52638099580868
12,-35.39360501872996
2,1,12,21, 0, 6, 0.00,15.00,WinterDesignDay
6,-20.0
7,-20.000008273788539
8,-20.0000019693208
9,0.0
10,0.0
11,93.91078067943087
12,-32.57888898282493
2,1,12,21, 0, 6,15.00,30.00,WinterDesignDay
6,-20.0
7,-20.000008273788539
8,-20.0000019693208
9,0.0
10,0.0
11,96.2345244144664
12,-29.77203342323527
2,1,12,21, 0, 6,30.00,45.00,WinterDesignDay
6,-20.0
7,-20.000008273788539
8,-20.0000019693208
9,0.0
10,0.0
11,98.51365956665735
12,-26.977440678921693
2,1,12,21, 0, 6,45.00,60.00,WinterDesignDay
6,-20.0
7,-20.000008273788539
8,-20.0000019693208
9,0.0
10,0.0
11,100.76221648201299
12,-24.199307630088606
2,1,12,21, 0, 7, 0.00,15.00,WinterDesignDay
6,-20.0
7,-20.000008273788539
8,-20.0000019693208
9,0.0
10,0.0
11,102.99264578715568
12,-21.441723091784327
2,1,12,21, 0, 7,15.00,30.00,WinterDesignDay
6,-20.0
7,-20.000008273788539
8,-20.0000019693208
9,0.0
10,0.0
11,105.21616046100334
12,-18.708748506124306
2,1,12,21, 0, 7,30.00,45.00,WinterDesignDay
6,-20.0
7,-20.000008273788539
8,-20.0000019693208
9,0.0
10,0.0
11,107.44300411386364
12,-16.004486594263264
2,1,12,21, 0, 7,45.00,60.00,WinterDesignDay
6,-20.0
7,-20.000008273788539
8,-20.0000019693208
9,0.0
10,0.0
11,109.68266115614424
12,-13.33314128437113
2,1,12,21, 0, 8, 0.00,15.00,WinterDesignDay
6,-20.0
7,-20.000008273788539
8,-20.0000019693208
9,0.0
10,0.0
11,111.94402016844885
12,-10.699071240230508
2,1,12,21, 0, 8,15.00,30.00,WinterDesignDay
6,-20.0
7,-20.000008273788539
8,-20.0000019693208
9,0.0
10,0.0
11,114.23549843541858
12,-8.106838553941559
2,1,12,21, 0, 8,30.00,45.00,WinterDesignDay
6,-20.0
7,-20.000008273788539
8,-20.0000019693208
9,0.0
10,0.0
11,116.56513300209459
12,-5.561253548909381
2,1,12,21, 0, 8,45.00,60.00,WinterDesignDay
6,-20.0
7,-20.000008273788539
8,-20.0000019693208
9,0.0
10,0.0
11,118.94064155491262
12,-3.0674161033799556
2,1,12,21, 0, 9, 0.00,15.00,WinterDesignDay
6,-20.0
7,-20.000008273788539
8,-20.0000019693208
9,0.0
10,0.0
11,121.36945478516003
12,-0.6307534046753747
2,1,12,21, 0, 9,15.00,30.00,WinterDesignDay
6,-20.0
7,-20.000008273788539
8,-20.0000019693208
9,0.0
10,0.0
11,123.85872058166959
12,1.742946453063422
2,1,12,21, 0, 9,30.00,45.00,WinterDesignDay
6,-20.0
7,-20.000008273788539
8,-20.0000019693208
9,0.0
10,0.0
11,126.41527939266877
12,4.047506131475709
2,1,12,21, 0, 9,45.00,60.00,WinterDesignDay
6,-20.0
7,-20.000008273788539
8,-20.0000019693208
9,0.0
10,0.0
11,129.04560941296709
12,6.276337621344333
2,1,12,21, 0,10, 0.00,15.00,WinterDesignDay
6,-20.0
7,-20.000008273788539
8,-20.0000019693208
9,0.0
10,0.0
11,131.75573995807305
12,8.422429950176524
2,1,12,21, 0,10,15.00,30.00,WinterDesignDay
6,-20.0
7,-20.000008273788539
8,-20.0000019693208
9,0.0
10,0.0
11,134.55113159223087
12,10.478348825099042
2,1,12,21, 0,10,30.00,45.00,WinterDesignDay
6,-20.0
7,-20.000008273788539
8,-20.0000019693208
9,0.0
10,0.0
11,137.4365224305815
12,12.436251548622595
2,1,12,21, 0,10,45.00,60.00,WinterDesignDay
6,-20.0
7,-20.000008273788539
8,-20.0000019693208
9,0.0
10,0.0
11,140.41574170259097
12,14.287920964694152
2,1,12,21, 0,11, 0.00,15.00,WinterDesignDay
6,-20.0
7,-20.000008273788539
8,-20.0000019693208
9,0.0
10,0.0
11,143.4914942924222
12,16.02482238707871
2,1,12,21, 0,11,15.00,30.00,WinterDesignDay
6,-20.0
7,-20.000008273788539
8,-20.0000019693208
9,0.0
10,0.0
11,146.66512363329543
12,17.63818729131765
2,1,12,21, 0,11,30.00,45.00,WinterDesignDay
6,-20.0
7,-20.000008273788539
8,-20.0000019693208
9,0.0
10,0.0
11,149.93636494034488
12,19.1191268550737
2,1,12,21, 0,11,45.00,60.00,WinterDesignDay
6,-20.0
7,-20.000008273788539
8,-20.0000019693208
9,0.0
10,0.0
11,153.30310598080585
12,20.458777055178925
2,1,12,21, 0,12, 0.00,15.00,WinterDesignDay
6,-20.0
7,-20.000008273788539
8,-20.0000019693208
9,0.0
10,0.0
11,156.7611777278506
12,21.648474867614494
2,1,12,21, 0,12,15.00,30.00,WinterDesignDay
6,-20.0
7,-20.000008273788539
8,-20.0000019693208
9,0.0
10,0.0
11,160.30420129127888
12,22.679962170306387
2,1,12,21, 0,12,30.00,45.00,WinterDesignDay
6,-20.0
7,-20.000008273788539
8,-20.0000019693208
9,0.0
10,0.0
11,163.92351915692735
12,23.54561038819011
2,1,12,21, 0,12,45.00,60.00,WinterDesignDay
6,-20.0
7,-20.000008273788539
8,-20.0000019693208
9,0.0
10,0.0
11,167.60823665886643
12,24.238655128817834
2,1,12,21, 0,13, 0.00,15.00,WinterDesignDay
6,-20.0
7,-20.000008273788539
8,-20.0000019693208
9,0.0
10,0.0
11,171.345392785191
12,24.753426628785645
2,1,12,21, 0,13,15.00,30.00,WinterDesignDay
6,-20.0
7,-20.000008273788539
8,-20.0000019693208
9,0.0
10,0.0
11,175.12026775366489
12,25.0855594949799
2,1,12,21, 0,13,30.00,45.00,WinterDesignDay
6,-20.0
7,-20.000008273788539
8,-20.0000019693208
9,0.0
10,0.0
11,178.9168193801452
12,25.23216468675178
2,1,12,21, 0,13,45.00,60.00,WinterDesignDay
6,-20.0
7,-20.000008273788539
8,-20.0000019693208
9,0.0
10,0.0
11,182.71822347205453
12,25.19194842170094
2,1,12,21, 0,14, 0.00,15.00,WinterDesignDay
6,-20.0
7,-20.000008273788539
8,-20.0000019693208
9,0.0
10,0.0
11,186.507478556595
12,24.965266749264324
2,1,12,21, 0,14,15.00,30.00,WinterDesignDay
6,-20.0
7,-20.000008273788539
8,-20.0000019693208
9,0.0
10,0.0
11,190.26802548014798
12,24.5541104500089
2,1,12,21, 0,14,30.00,45.00,WinterDesignDay
6,-20.0
7,-20.000008273788539
8,-20.0000019693208
9,0.0
10,0.0
11,193.98433010048809
12,23.962021749729009
2,1,12,21, 0,14,45.00,60.00,WinterDesignDay
6,-20.0
7,-20.000008273788539
8,-20.0000019693208
9,0.0
10,0.0
11,197.64238300038165
12,23.193950910519726
2,1,12,21, 0,15, 0.00,15.00,WinterDesignDay
6,-20.0
7,-20.000008273788539
8,-20.0000019693208
9,0.0
10,0.0
11,201.2300825020771
12,22.256065968842
2,1,12,21, 0,15,15.00,30.00,WinterDesignDay
6,-20.0
7,-20.000008273788539
8,-20.0000019693208
9,0.0
10,0.0
11,204.737483411572
12,21.155531978637098
2,1,12,21, 0,15,30.00,45.00,WinterDesignDay
6,-20.0
7,-20.000008273788539
8,-20.0000019693208
9,0.0
10,0.0
11,208.15691048145463
12,19.900276840766627
2,1,12,21, 0,15,45.00,60.00,WinterDesignDay
6,-20.0
7,-20.000008273788539
8,-20.0000019693208
9,0.0
10,0.0
11,211.48294960118745
12,18.49875941157081
2,1,12,21, 0,16, 0.00,15.00,WinterDesignDay
6,-20.0
7,-20.000008273788539
8,-20.0000019693208
9,0.0
10,0.0
11,214.71233936211218
12,16.95975268502014
2,1,12,21, 0,16,15.00,30.00,WinterDesignDay
6,-20.0
7,-20.000008273788539
8,-20.0000019693208
9,0.0
10,0.0
11,217.84379036348919
12,15.29215117452158
2,1,12,21, 0,16,30.00,45.00,WinterDesignDay
6,-20.0
7,-20.000008273788539
8,-20.0000019693208
9,0.0
10,0.0
11,220.87775997076799
12,13.504807867222857
2,1,12,21, 0,16,45.00,60.00,WinterDesignDay
6,-20.0
7,-20.000008273788539
8,-20.0000019693208
9,0.0
10,0.0
11,223.81620739266229
12,11.606402793520023
2,1,12,21, 0,17, 0.00,15.00,WinterDesignDay
6,-20.0
7,-20.000008273788539
8,-20.0000019693208
9,0.0
10,0.0
11,226.6623492752386
12,9.605342635902148
2,1,12,21, 0,17,15.00,30.00,WinterDesignDay
6,-20.0
7,-20.000008273788539
8,-20.0000019693208
9,0.0
10,0.0
11,229.42043072886097
12,7.509688984714806
2,1,12,21, 0,17,30.00,45.00,WinterDesignDay
6,-20.0
7,-20.000008273788539
8,-20.0000019693208
9,0.0
10,0.0
11,232.09552168904419
12,5.327111781506124
2,1,12,21, 0,17,45.00,60.00,WinterDesignDay
6,-20.0
7,-20.000008273788539
8,-20.0000019693208
9,0.0
10,0.0
11,234.69334428722298
12,3.0648640403941025
2,1,12,21, 0,18, 0.00,15.00,WinterDesignDay
6,-20.0
7,-20.000008273788539
8,-20.0000019693208
9,0.0
10,0.0
11,237.22013369115
12,0.7297739431987832
2,1,12,21, 0,18,15.00,30.00,WinterDesignDay
6,-20.0
7,-20.000008273788539
8,-20.0000019693208
9,0.0
10,0.0
11,239.68253267466225
12,-1.671749288915703
2,1,12,21, 0,18,30.00,45.00,WinterDesignDay
6,-20.0
7,-20.000008273788539
8,-20.0000019693208
9,0.0
10,0.0
11,242.08751887997253
12,-4.133698863180546
2,1,12,21, 0,18,45.00,60.00,WinterDesignDay
6,-20.0
7,-20.000008273788539
8,-20.0000019693208
9,0.0
10,0.0
11,244.44236318103533
12,-6.650445776663404
2,1,12,21, 0,19, 0.00,15.00,WinterDesignDay
6,-20.0
7,-20.000008273788539
8,-20.0000019693208
9,0.0
10,0.0
11,246.7546175824931
12,-9.216708045994329
2,1,12,21, 0,19,15.00,30.00,WinterDesignDay
6,-20.0
7,-20.000008273788539
8,-20.0000019693208
9,0.0
10,0.0
11,249.03213156179155
12,-11.827515216827026
2,1,12,21, 0,19,30.00,45.00,WinterDesignDay
6,-20.0
7,-20.000008273788539
8,-20.0000019693208
9,0.0
10,0.0
11,251.283096590169
12,-14.478169031262926
2,1,12,21, 0,19,45.00,60.00,WinterDesignDay
6,-20.0
7,-20.000008273788539
8,-20.0000019693208
9,0.0
10,0.0
11,253.51611970550378
12,-17.16420062512558
2,1,12,21, 0,20, 0.00,15.00,WinterDesignDay
6,-20.0
7,-20.000008273788539
8,-20.0000019693208
9,0.0
10,0.0
11,255.7403284580185
12,-19.88132413177316
2,1,12,21, 0,20,15.00,30.00,WinterDesignDay
6,-20.0
7,-20.000008273788539
8,-20.0000019693208
9,0.0
10,0.0
11,257.965511358772
12,-22.625386058339968
2,1,12,21, 0,20,30.00,45.00,WinterDesignDay
6,-20.0
7,-20.000008273788539
8,-20.0000019693208
9,0.0
10,0.0
11,260.20230023283986
12,-25.392309235809074
2,1,12,21, 0,20,45.00,60.00,WinterDesignDay
6,-20.0
7,-20.000008273788539
8,-20.0000019693208
9,0.0
10,0.0
11,262.4624037750133
12,-28.178029473984919
2,1,12,21, 0,21, 0.00,15.00,WinterDesignDay
6,-20.0
7,-20.000008273788539
8,-20.0000019693208
9,0.0
10,0.0
11,264.75890535591477
12,-30.978422204532554
2,1,12,21, 0,21,15.00,30.00,WinterDesignDay
6,-20.0
7,-20.000008273788539
8,-20.0000019693208
9,0.0
10,0.0
11,267.1066430423559
12,-33.789215269333038
2,1,12,21, 0,21,30.00,45.00,WinterDesignDay
6,-20.0
7,-20.000008273788539
8,-20.0000019693208
9,0.0
10,0.0
11,269.522696278495
12,-36.60588246421297
2,1,12,21, 0,21,45.00,60.00,WinterDesignDay
6,-20.0
7,-20.000008273788539
8,-20.0000019693208
9,0.0
10,0.0
11,272.02701220012195
12,-39.423510272776578
2,1,12,21, 0,22, 0.00,15.00,WinterDesignDay
6,-20.0
7,-20.000008273788539
8,-20.0000019693208
9,0.0
10,0.0
11,274.6432155974311
12,-42.236627121864149
2,1,12,21, 0,22,15.00,30.00,WinterDesignDay
6,-20.0
7,-20.000008273788539
8,-20.0000019693208
9,0.0
10,0.0
11,277.39966033477767
12,-45.03898002846426
2,1,12,21, 0,22,30.00,45.00,WinterDesignDay
6,-20.0
7,-20.000008273788539
8,-20.0000019693208
9,0.0
10,0.0
11,280.330795943
12,-47.82323708577985
2,1,12,21, 0,22,45.00,60.00,WinterDesignDay
6,-20.0
7,-20.000008273788539
8,-20.0000019693208
9,0.0
10,0.0
11,283.4789380913531
12,-50.580585064080128
2,1,12,21, 0,23, 0.00,15.00,WinterDesignDay
6,-20.0
7,-20.000008273788539
8,-20.0000019693208
9,0.0
10,0.0
11,286.89653676459496
12,-53.30017859445796
2,1,12,21, 0,23,15.00,30.00,WinterDesignDay
6,-20.0
7,-20.000008273788539
8,-20.0000019693208
9,0.0
10,0.0
11,290.64900844884729
12,-55.96838041145066
2,1,12,21, 0,23,30.00,45.00,WinterDesignDay
6,-20.0
7,-20.000008273788539
8,-20.0000019693208
9,0.0
10,0.0
11,294.81808512887178
12,-58.567712115815428
2,1,12,21, 0,23,45.00,60.00,WinterDesignDay
6,-20.0
7,-20.000008273788539
8,-20.0000019693208
9,0.0
10,0.0
11,299.50531661435107
12,-61.075418516987948
2,1,12,21, 0,24, 0.00,15.00,WinterDesignDay
6,-20.0
7,-20.000008273788539
8,-20.0000019693208
9,0.0
10,0.0
11,304.83460905293966
12,-63.461557170634069
2,1,12,21, 0,24,15.00,30.00,WinterDesignDay
6,-20.0
7,-20.000008273788539
8,-20.0000019693208
9,0.0
10,0.0
11,310.95108909182445
12,-65.68661410661997
2,1,12,21, 0,24,30.00,45.00,WinterDesignDay
6,-20.0
7,-20.000008273788539
8,-20.0000019693208
9,0.0
10,0.0
11,318.0106999939911
12,-67.69893982545878
2,1,12,21, 0,24,45.00,60.00,WinterDesignDay
6,-20.0
7,-20.000008273788539
8,-20.0000019693208
9,0.0
10,0.0
11,326.15112482734539
12,-69.43300188004982
1,DENVER_STAPLETON ANN CLG .4% CONDNS DB=>MWB,  41.28,   2.07,   1.00,   6.00
2,1, 7,21, 0, 1, 0.00,15.00,SummerDesignDay
6,21.408
7,-0.0917491760027557
8,10.802611643264497
9,0.0
10,0.0
11,11.317888446117517
12,-27.306932196781838
2,1, 7,21, 0, 1,15.00,30.00,SummerDesignDay
6,21.18
7,-0.09174515458305585
8,10.704450596670118
9,0.0
10,0.0
11,7.393426634429152
12,-27.76514094041522
2,1, 7,21, 0, 1,30.00,45.00,SummerDesignDay
6,20.952
7,-0.09174083247389112
8,10.6059636186415
9,0.0
10,0.0
11,3.433344077505328
12,-28.03105821956022
2,1, 7,21, 0, 1,45.00,60.00,SummerDesignDay
6,20.724000000000005
7,-0.09173599065275112
8,10.507152919921122
9,0.0
10,0.0
11,0.5435456130622095
12,-28.102133245522479
2,1, 7,21, 0, 2, 0.00,15.00,SummerDesignDay
6,20.572000000000004
7,-0.09174655581559103
8,10.44108808442203
9,0.0
10,0.0
11,4.517763129225214
12,-27.977676949521848
2,1, 7,21, 0, 2,15.00,30.00,SummerDesignDay
6,20.42
7,-0.0917373508172314
8,10.374891871350107
9,0.0
10,0.0
11,8.469935684208846
12,-27.65889389613843
2,1, 7,21, 0, 2,30.00,45.00,SummerDesignDay
6,20.268
7,-0.09174842164051204
8,10.308534910133876
9,0.0
10,0.0
11,12.381559445756345
12,-27.148826654306267
2,1, 7,21, 0, 2,45.00,60.00,SummerDesignDay
6,20.116
7,-0.09173892646375787
8,10.242045879834402
9,0.0
10,0.0
11,16.235683509766056
12,-26.452218584929896
2,1, 7,21, 0, 3, 0.00,15.00,SummerDesignDay
6,20.002000000000004
7,-0.09173628653259926
8,10.192077592960912
9,0.0
10,0.0
11,20.017459780381214
12,-25.57530927648501
2,1, 7,21, 0, 3,15.00,30.00,SummerDesignDay
6,19.888
7,-0.091754246016636
8,10.142013896016764
9,0.0
10,0.0
11,23.714524173916855
12,-24.525582568215464
2,1, 7,21, 0, 3,30.00,45.00,SummerDesignDay
6,19.774000000000006
7,-0.09175218577902167
8,10.09187972125197
9,0.0
10,0.0
11,27.317198559854928
12,-23.31148949864119
2,1, 7,21, 0, 3,45.00,60.00,SummerDesignDay
6,19.660000000000005
7,-0.09175006295258245
8,10.041663984725569
9,0.0
10,0.0
11,30.818524731489477
12,-21.942167673049924
2,1, 7,21, 0, 4, 0.00,15.00,SummerDesignDay
6,19.546000000000004
7,-0.09174791986533897
8,9.991363016645183
9,0.0
10,0.0
11,34.21415783055413
12,-20.4271751841862
2,1, 7,21, 0, 4,15.00,30.00,SummerDesignDay
6,19.432000000000003
7,-0.09174612762147878
8,9.940977944028856
9,0.0
10,0.0
11,37.50215549318315
12,-18.776252412251293
2,1, 7,21, 0, 4,30.00,45.00,SummerDesignDay
6,19.318000000000006
7,-0.09174401867408147
8,9.890511245665318
9,0.0
10,0.0
11,40.682700934048607
12,-16.999119845371636
2,1, 7,21, 0, 4,45.00,60.00,SummerDesignDay
6,19.204
7,-0.09174164104671666
8,9.839958151458724
9,0.0
10,0.0
11,43.75779489883294
12,-15.105315337300372
2,1, 7,21, 0, 5, 0.00,15.00,SummerDesignDay
6,19.128
7,-0.09174681422425092
8,9.806204992472783
9,0.0
10,0.0
11,46.730945012540598
12,-13.104070456396377
2,1, 7,21, 0, 5,15.00,30.00,SummerDesignDay
6,19.052
7,-0.09175195312008142
8,9.772414217289534
9,0.0
10,0.0
11,49.606873485989598
12,-11.004222959309958
2,1, 7,21, 0, 5,30.00,45.00,SummerDesignDay
6,18.976000000000004
7,-0.09173755380590443
8,9.738600919739377
9,0.0
10,0.0
11,52.39125685992275
12,-8.81416088742573
2,1, 7,21, 0, 5,45.00,60.00,SummerDesignDay
6,18.900000000000003
7,-0.09174317048542712
8,9.704734910275317
9,0.0
10,0.0
11,55.090505320907968
12,-6.541793141456027
2,1, 7,21, 0, 6, 0.00,15.00,SummerDesignDay
6,18.976000000000004
7,-0.09173755380590443
8,9.738600919739377
9,0.0
10,0.0
11,57.711584467409497
12,-4.194541398643256
2,1, 7,21, 0, 6,15.00,30.00,SummerDesignDay
6,19.052
7,-0.09175195312008142
8,9.772414217289534
9,0.0
10,0.0
11,60.26187924074981
12,-1.7793486673465664
2,1, 7,21, 0, 6,30.00,45.00,SummerDesignDay
6,19.128
7,-0.09174681422425092
8,9.806204992472783
9,0.0000055188654728930449
10,0.0000404307855815835
11,62.74909787156991
12,0.6972995635470194
2,1, 7,21, 0, 6,45.00,60.00,SummerDesignDay
6,19.204
7,-0.09174164104671666
8,9.839958151458724
9,3.67716112113896
10,26.938600617813209
11,65.18121285975949
12,3.2293448653288987
2,1, 7,21, 0, 7, 0.00,15.00,SummerDesignDay
6,19.470000000000004
7,-0.09175292631146777
8,9.957777996401637
9,18.94273908338541
10,138.77305507263265
11,67.56643593856188
12,5.811118621377793
2,1, 7,21, 0, 7,15.00,30.00,SummerDesignDay
6,19.736
7,-0.09174538662818031
8,10.075156122891235
9,35.82521265001998
10,262.4527628335726
11,69.9132244488422
12,8.43729979001951
2,1, 7,21, 0, 7,30.00,45.00,SummerDesignDay
6,20.002000000000004
7,-0.09173628653259926
8,10.192077592960912
9,50.2189576248895
10,367.9002356254543
11,72.23031740391252
12,11.102868818086784
2,1, 7,21, 0, 7,45.00,60.00,SummerDesignDay
6,20.268
7,-0.09174842164051204
8,10.308534910133876
9,61.859747574022559
10,453.1797708388636
11,74.5268006562112
12,13.803058243946623
2,1, 7,21, 0, 8, 0.00,15.00,SummerDesignDay
6,20.914
7,-0.09175325374092185
8,10.589508900798217
9,71.22644683509194
10,521.7994919194996
11,76.81220193726523
12,16.533299969820996
2,1, 7,21, 0, 8,15.00,30.00,SummerDesignDay
6,21.560000000000004
7,-0.09173796808456653
8,10.867882602713174
9,78.82276409803845
10,577.4495301341245
11,79.09661813256318
12,19.289168638646939
2,1, 7,21, 0, 8,30.00,45.00,SummerDesignDay
6,22.206000000000004
7,-0.09174344105368751
8,11.143661711667999
9,85.0517287939099
10,623.0824482132119
11,81.390879015561
12,22.066319983641145
2,1, 7,21, 0, 8,45.00,60.00,SummerDesignDay
6,22.852000000000005
7,-0.09174881845643851
8,11.416894829744745
9,90.2165364912543
10,660.9194336601464
11,83.70675387847833
12,24.860422382397397
2,1, 7,21, 0, 9, 0.00,15.00,SummerDesignDay
6,23.574000000000006
7,-0.09174826669774569
8,11.71930620564426
9,94.54265768362576
10,692.6122660344471
11,86.05721017076353
12,27.667079082275135
2,1, 7,21, 0, 9,15.00,30.00,SummerDesignDay
6,24.296
7,-0.09174816354177475
8,12.018626871660718
9,98.19857051374514
10,719.3952033003617
11,88.4567365187716
12,30.481737592849183
2,1, 7,21, 0, 9,30.00,45.00,SummerDesignDay
6,25.018
7,-0.09174849706359585
8,12.31490339115131
9,101.31150030738734
10,742.2002884461124
11,90.92174647998292
12,33.29958146221807
2,1, 7,21, 0, 9,45.00,60.00,SummerDesignDay
6,25.740000000000003
7,-0.09174767036654273
8,12.608181169607685
9,103.97870331490155
10,761.7400133096781
11,93.47108415414914
12,36.115397930891408
2,1, 7,21, 0,10, 0.00,15.00,SummerDesignDay
6,26.386000000000004
7,-0.09175247847079293
8,12.86807943610441
9,106.2754422201602
10,778.5657465462443
11,96.12665822769682
12,38.923412609747199
2,1, 7,21, 0,10,15.00,30.00,SummerDesignDay
6,27.032000000000005
7,-0.09173812200681875
8,13.125658857510349
9,108.26063380025565
10,793.1091079504007
11,98.91423662301328
12,41.71707912690988
2,1, 7,21, 0,10,30.00,45.00,SummerDesignDay
6,27.678
7,-0.09174353176119329
8,13.380923759900873
9,109.98088194320754
10,805.7115140348427
11,101.86443812655802
12,44.488807361043509
2,1, 7,21, 0,10,45.00,60.00,SummerDesignDay
6,28.324
7,-0.09174837326742268
8,13.633918830466293
9,111.47338947758378
10,816.6455098710616
11,105.01395652660044
12,47.229608167395827
2,1, 7,21, 0,11, 0.00,15.00,SummerDesignDay
6,28.894000000000003
7,-0.09173886793747474
8,13.85529874150738
9,112.76808528037644
10,826.1303521186559
11,108.40703889549285
12,49.92862533243821
2,1, 7,21, 0,11,15.00,30.00,SummerDesignDay
6,29.464000000000003
7,-0.09174930388548988
8,14.074943283457279
9,113.8891960718733
10,834.3435238741268
11,112.09719608024253
12,52.572517411334427
2,1, 7,21, 0,11,30.00,45.00,SummerDesignDay
6,30.034000000000004
7,-0.09174015210698607
8,14.29289700919098
9,114.85642032280846
10,841.4293346247134
11,116.14901740298173
12,55.144645325970667
2,1, 7,21, 0,11,45.00,60.00,SummerDesignDay
6,30.604000000000004
7,-0.09175026089452686
8,14.509159910625805
9,115.68581331220125
10,847.5054041143055
11,120.6397322684628
12,57.62402229890276
2,1, 7,21, 0,12, 0.00,15.00,SummerDesignDay
6,30.984
7,-0.09174324528230941
8,14.652417733607127
9,116.39045964094771
10,852.6675891264841
11,125.65970777256284
12,59.984005528510348
2,1, 7,21, 0,12,15.00,30.00,SummerDesignDay
6,31.364
7,-0.09173754580926508
8,14.794942650929574
9,116.98098714366178
10,856.9937483632929
11,131.3102601053041
12,62.19078472652323
2,1, 7,21, 0,12,30.00,45.00,SummerDesignDay
6,31.744
7,-0.0917513714825059
8,14.936730340358415
9,117.4659606816296
10,860.5466273422473
11,137.6959217911891
12,64.20190622889074
2,1, 7,21, 0,12,45.00,60.00,SummerDesignDay
6,32.124
7,-0.09174431232949072
8,15.077807890378221
9,117.85218346815917
10,863.3760658827583
11,144.9070016300498
12,65.96543459476885
2,1, 7,21, 0,13, 0.00,15.00,SummerDesignDay
6,32.428000000000007
7,-0.09176350761599679
8,15.190141690937585
9,118.14492587288986
10,865.5206743089713
11,152.98846979154414
12,67.42091232001899
2,1, 7,21, 0,13,15.00,30.00,SummerDesignDay
6,32.732
7,-0.09174166839832644
8,15.302041873987119
9,118.34809607298357
10,867.0090836273179
11,161.89642245316439
12,68.50377678469215
2,1, 7,21, 0,13,30.00,45.00,SummerDesignDay
6,33.036
7,-0.09176190212934696
8,15.41346908952853
9,118.46436278995563
10,867.8608446871339
11,171.4569743553439
12,69.15451347342114
2,1, 7,21, 0,13,45.00,60.00,SummerDesignDay
6,33.34
7,-0.09174073101622818
8,15.524468328510047
9,118.4952372050261
10,868.0870282862453
11,181.35851992176954
12,69.33147670320146
2,1, 7,21, 0,14, 0.00,15.00,SummerDesignDay
6,33.53
7,-0.0917362907713432
8,15.593611934609852
9,118.44111865329089
10,867.6905599229667
11,191.20429142173385
12,69.02246647578109
2,1, 7,21, 0,14,15.00,30.00,SummerDesignDay
6,33.72
7,-0.09177259306844567
8,15.662559101477149
9,118.30130661451776
10,866.666307639753
11,200.6120897985202
12,68.24853327910749
2,1, 7,21, 0,14,30.00,45.00,SummerDesignDay
6,33.910000000000007
7,-0.09177015968278822
8,15.731354707374852
9,118.07397965540456
10,865.0009277557963
11,209.3054701621861
12,67.05753077014127
2,1, 7,21, 0,14,45.00,60.00,SummerDesignDay
6,34.1
7,-0.09176714009998104
8,15.799979625732107
9,117.75614017167051
10,862.6724600518218
11,217.1488918725131
12,65.51152784724909
2,1, 7,21, 0,15, 0.00,15.00,SummerDesignDay
6,34.1
7,-0.09176714009998104
8,15.799979625732107
9,117.34352187235464
10,859.6496500071455
11,224.12736914704994
12,63.67466585477784
2,1, 7,21, 0,15,15.00,30.00,SummerDesignDay
6,34.1
7,-0.09176714009998104
8,15.799979625732107
9,116.8304547747863
10,855.8909597631746
11,230.30218282237463
12,61.605334705108209
2,1, 7,21, 0,15,30.00,45.00,SummerDesignDay
6,34.1
7,-0.09176714009998104
8,15.799979625732107
9,116.2096798347076
10,851.3432101178864
11,235.76999227876468
12,59.35287146035633
2,1, 7,21, 0,15,45.00,60.00,SummerDesignDay
6,34.1
7,-0.09176714009998104
8,15.799979625732107
9,115.47210195894577
10,845.939771115592
11,240.63568896633593
12,56.957242307767888
2,1, 7,21, 0,16, 0.00,15.00,SummerDesignDay
6,33.872
7,-0.09176226571509744
8,15.717614999572623
9,114.60646567639651
10,839.5981860374108
11,244.99806541921894
12,54.45014413368665
2,1, 7,21, 0,16,15.00,30.00,SummerDesignDay
6,33.644
7,-0.09175809870960473
8,15.63500031376251
9,113.59893166192195
10,832.2170690477953
11,248.9439631870544
12,51.856530669657967
2,1, 7,21, 0,16,30.00,45.00,SummerDesignDay
6,33.416000000000007
7,-0.0917553027009651
8,15.552138365552688
9,112.4325238653464
10,823.6720549039169
11,252.54704284151416
12,49.19608174959327
2,1, 7,21, 0,16,45.00,60.00,SummerDesignDay
6,33.188
7,-0.09175048195677715
8,15.469025679818028
9,111.0864050773916
10,813.8104918072155
11,255.86869133311897
12,46.484441951977
2,1, 7,21, 0,17, 0.00,15.00,SummerDesignDay
6,32.884
7,-0.0917713168106049
8,15.357800458832005
9,109.53492168583209
10,802.4444433601878
11,258.9597087876655
12,43.734202098282967
2,1, 7,21, 0,17,15.00,30.00,SummerDesignDay
6,32.58
7,-0.09175247020526545
8,15.246147653541453
9,107.74633358671525
10,789.3413839933038
11,261.8621174723048
12,40.955654008961378
2,1, 7,21, 0,17,30.00,45.00,SummerDesignDay
6,32.276
7,-0.09177416657650796
8,15.134020188281872
9,105.68110882497725
10,774.2117056328281
11,264.6108154768706
12,38.157363493829517
2,1, 7,21, 0,17,45.00,60.00,SummerDesignDay
6,31.972
7,-0.09175463582853637
8,15.021457979583369
9,103.28960862862697
10,756.6917584386327
11,267.2349851186324
12,35.34660422376442
2,1, 7,21, 0,18, 0.00,15.00,SummerDesignDay
6,31.592000000000004
7,-0.09174144398837887
8,14.880103669374816
9,100.50890823742431
10,736.3205604386923
11,269.75925046415457
12,32.5296876110699
2,1, 7,21, 0,18,15.00,30.00,SummerDesignDay
6,31.212000000000005
7,-0.09174705324507503
8,14.738015057567213
9,97.25837979564823
10,712.5074381399537
11,272.2046114289392
12,29.71221587157773
2,1, 7,21, 0,18,30.00,45.00,SummerDesignDay
6,30.832
7,-0.09175401949522666
8,14.595197565798854
9,93.43349030959956
10,684.4865908402239
11,274.5891910630283
12,26.899278653883174
2,1, 7,21, 0,18,45.00,60.00,SummerDesignDay
6,30.452
7,-0.09174017411257865
8,14.45165633466013
9,88.89703089413189
10,651.2528367602966
11,276.92883154033316
12,24.095608308150465
2,1, 7,21, 0,19, 0.00,15.00,SummerDesignDay
6,29.882
7,-0.09174952412720931
8,14.234937614784935
9,83.46672826699958
10,611.4708558007926
11,279.23756954203039
12,21.305704875050478
2,1, 7,21, 0,19,15.00,30.00,SummerDesignDay
6,29.312
7,-0.09173945787543402
8,14.016543187144548
9,76.89812508822252
10,563.3497722201075
11,281.5280160713881
12,18.533938932842508
2,1, 7,21, 0,19,30.00,45.00,SummerDesignDay
6,28.742
7,-0.09174974124054553
8,13.796428486990513
9,68.86275157822596
10,504.4832415814645
11,283.8116604419808
12,15.784638284623389
2,1, 7,21, 0,19,45.00,60.00,SummerDesignDay
6,28.172
7,-0.09173954109147607
8,13.574598949629135
9,58.928001574141827
10,431.7020242833369
11,286.09911362812707
12,13.062162881879664
2,1, 7,21, 0,20, 0.00,15.00,SummerDesignDay
6,27.754
7,-0.09173816875929632
8,13.41080889108237
9,46.57353472512136
10,341.1941467855215
11,288.40030239347939
12,10.37097119754824
2,1, 7,21, 0,20,15.00,30.00,SummerDesignDay
6,27.336000000000003
7,-0.0917368478080842
8,13.246070220118169
9,31.402418585118445
10,230.05171240249624
11,290.72462252545759
12,7.715680355994431
2,1, 7,21, 0,20,30.00,45.00,SummerDesignDay
6,26.918
7,-0.09173638200052249
8,13.080374165642383
9,14.24189950794713
10,104.33506453608556
11,293.0810569678747
12,5.101121604222061
2,1, 7,21, 0,20,45.00,60.00,SummerDesignDay
6,26.5
7,-0.09173448327843714
8,12.913712651664817
9,1.3312562344276616
10,9.75268116837719
11,295.4782625361755
12,2.5323920965122919
2,1, 7,21, 0,21, 0.00,15.00,SummerDesignDay
6,26.158
7,-0.09174828245624695
8,12.776620565209154
9,0.0
10,0.0