Program Version,EnergyPlus, Version 9.0.1-bb7ca4f0da, YMD=2019.07.17 19:51
1,5,Environment Title[],Latitude[deg],Longitude[deg],Time Zone[],Elevation[m]
2,8,Day of Simulation[],Month[],Day of Month[],DST Indicator[1=yes 0=no],Hour[],StartMinute[],EndMinute[],DayType
3,5,Cumulative Day of Simulation[],Month[],Day of Month[],DST Indicator[1=yes 0=no],DayType  ! When Daily Report Variables Requested
4,2,Cumulative Days of Simulation[],Month[]  ! When Monthly Report Variables Requested
5,1,Cumulative Days of Simulation[] ! When Run Period Report Variables Requested
6,1,Calendar Year of Simulation[] ! When Annual Report Variables Requested
7,1,Environment,Site Outdoor Air Drybulb Temperature [C] !Hourly
8,1,ZONE ONE,Zone Air System Sensible Heating Energy [J] !Hourly
69,1,ZONE ONE,Zone Air System Sensible Cooling Energy [J] !Hourly
94,1,ZONE ONE,Zone Air Temperature [C] !Hourly
97,1,DistrictHeating:Facility [J] !Hourly
134,1,DistrictCooling:Facility [J] !Hourly
End of Data Dictionary
1,CHICAGO_IL_USA COOLING .4% CONDITIONS DB=>MWB,  41.78, -87.75,  -6.00, 190.00
2,1, 7,21, 0, 1, 0.00,60.00,SummerDesignDay
7,23.453249999999998
8,0.0
69,0.0
94,22.08371100178889
97,0.0
134,0.0
2,1, 7,21, 0, 2, 0.00,60.00,SummerDesignDay
7,22.935499999999999
8,0.0
69,0.0
94,21.92688482990564
97,0.0
134,0.0
2,1, 7,21, 0, 3, 0.00,60.00,SummerDesignDay
7,22.567625
8,0.0
69,0.0
94,21.80586135417881
97,0.0
134,0.0
2,1, 7,21, 0, 4, 0.00,60.00,SummerDesignDay
7,22.240624999999999
8,0.0
69,0.0
94,21.713081697219278
97,0.0
134,0.0
2,1, 7,21, 0, 5, 0.00,60.00,SummerDesignDay
7,21.981749999999999
8,0.0
69,0.0
94,21.63998457719874
97,0.0
134,0.0
2,1, 7,21, 0, 6, 0.00,60.00,SummerDesignDay
7,22.036249999999997
8,0.0
69,0.0
94,21.70905733392331
97,0.0
134,0.0
2,1, 7,21, 0, 7, 0.00,60.00,SummerDesignDay
7,22.594875
8,0.0
69,0.0
94,22.430712871046823
97,0.0
134,0.0
2,1, 7,21, 0, 8, 0.00,60.00,SummerDesignDay
7,24.039124999999996
8,0.0
69,0.0
94,23.41311636582375
97,0.0
134,0.0
2,1, 7,21, 0, 9, 0.00,60.00,SummerDesignDay
7,26.028374999999998
8,0.0
69,279431.959317188
94,23.986231315259969
97,7.175060545705492e-9
134,279125.93928176377
2,1, 7,21, 0,10, 0.00,60.00,SummerDesignDay
7,27.963124999999999
8,0.0
69,907210.9880067019
94,23.999999996609867
97,1.460591647628462e-8
134,907210.9820131668
2,1, 7,21, 0,11, 0.00,60.00,SummerDesignDay
7,29.679874999999997
8,0.0
69,1371016.4269108393
94,24.0
97,3.448121788096614e-8
134,1371016.4269107369
2,1, 7,21, 0,12, 0.00,60.00,SummerDesignDay
7,30.974249999999999
8,0.0
69,1626342.1548293115
94,24.00000000000003
97,4.282014742784668e-8
134,1626342.1548292947
2,1, 7,21, 0,13, 0.00,60.00,SummerDesignDay
7,31.927999999999999
8,0.0
69,1750387.0406294903
94,23.999999999999987
97,1.4017587091075257e-8
134,1750387.0406295176
2,1, 7,21, 0,14, 0.00,60.00,SummerDesignDay
7,32.595625
8,0.0
69,1921664.168854391
94,23.999999999999998
97,3.141167326248251e-8
134,1921664.1688543494
2,1, 7,21, 0,15, 0.00,60.00,SummerDesignDay
7,32.8
8,0.0
69,2009491.9419095149
94,24.000000000000037
97,8.451479516224936e-8
134,2009491.9419094469
2,1, 7,21, 0,16, 0.00,60.00,SummerDesignDay
7,32.39125
8,0.0
69,1918168.5111682469
94,24.00000000000002
97,4.660591912397649e-8
134,1918168.5111683044
2,1, 7,21, 0,17, 0.00,60.00,SummerDesignDay
7,31.601
8,0.0
69,1635419.6336242024
94,24.000000000000015
97,5.366587174648885e-8
134,1635419.6336241973
2,1, 7,21, 0,18, 0.00,60.00,SummerDesignDay
7,30.592749999999996
8,0.0
69,1286232.4722861103
94,24.00000000000004
97,3.084892341576051e-8
134,1286232.4722860358
2,1, 7,21, 0,19, 0.00,60.00,SummerDesignDay
7,29.162124999999997
8,0.0
69,750213.9514300244
94,24.000000000000005
97,1.9031176634598525e-8
134,750213.9514300138
2,1, 7,21, 0,20, 0.00,60.00,SummerDesignDay
7,27.799624999999997
8,0.0
69,76911.30890643248
94,23.948257159722748
97,2.5195845410053154e-9
134,76911.3089064289
2,1, 7,21, 0,21, 0.00,60.00,SummerDesignDay
7,26.736874999999999
8,0.0
69,0.0
94,23.441909462156234
97,0.0
134,0.0
2,1, 7,21, 0,22, 0.00,60.00,SummerDesignDay
7,25.755874999999997
8,0.0
69,0.0
94,22.940398211557424
97,0.0
134,0.0
2,1, 7,21, 0,23, 0.00,60.00,SummerDesignDay
7,24.911125
8,0.0
69,0.0
94,22.576249342599234
97,0.0
134,0.0
2,1, 7,21, 0,24, 0.00,60.00,SummerDesignDay
7,24.148124999999998
8,0.0
69,0.0
94,22.293597971046809
97,0.0
134,0.0
1,CHICAGO_IL_USA HEATING 99.6% CONDITIONS,  41.78, -87.75,  -6.00, 190.00
2,1, 1,21, 0, 1, 0.00,60.00,WinterDesignDay
7,-21.2
8,5896648.253182391
69,0.0
94,20.000000000000005
97,5896648.253182392
134,1.6452759155072273e-7
2,1, 1,21, 0, 2, 0.00,60.00,WinterDesignDay
7,-21.2
8,5896648.253182391
69,0.0
94,20.000000000000005
97,5896648.253182392
134,1.6452759155072273e-7
2,1, 1,21, 0, 3, 0.00,60.00,WinterDesignDay
7,-21.2
8,5896648.253182391
69,0.0
94,20.000000000000005
97,5896648.253182392
134,1.6452759155072273e-7
2,1, 1,21, 0, 4, 0.00,60.00,WinterDesignDay
7,-21.2
8,5896648.253182391
69,0.0
94,20.000000000000005
97,5896648.253182392
134,1.6452759155072273e-7
2,1, 1,21, 0, 5, 0.00,60.00,WinterDesignDay
7,-21.2
8,5896648.253182391
69,0.0
94,20.000000000000005
97,5896648.253182392
134,1.6452759155072273e-7
2,1, 1,21, 0, 6, 0.00,60.00,WinterDesignDay
7,-21.2
8,5896648.253182391
69,0.0
94,20.000000000000005
97,5896648.253182392
134,1.6452759155072273e-7
2,1, 1,21, 0, 7, 0.00,60.00,WinterDesignDay
7,-21.2
8,5896648.253182391
69,0.0
94,20.000000000000005
97,5896648.253182392
134,1.6452759155072273e-7
2,1, 1,21, 0, 8, 0.00,60.00,WinterDesignDay
7,-21.2
8,5896648.253182391
69,0.0
94,20.000000000000005
97,5896648.253182392
134,1.6452759155072273e-7
2,1, 1,21, 0, 9, 0.00,60.00,WinterDesignDay
7,-21.2
8,5896648.253182391
69,0.0
94,20.000000000000005
97,5896648.253182392
134,1.6452759155072273e-7
2,1, 1,21, 0,10, 0.00,60.00,WinterDesignDay
7,-21.2
8,5896648.253182391
69,0.0
94,20.000000000000005
97,5896648.253182392
134,1.6452759155072273e-7
2,1, 1,21, 0,11, 0.00,60.00,WinterDesignDay
7,-21.2
8,5896648.253182391
69,0.0
94,20.000000000000005
97,5896648.253182392
134,1.6452759155072273e-7
2,1, 1,21, 0,12, 0.00,60.00,WinterDesignDay
7,-21.2
8,5896648.253182391
69,0.0
94,20.000000000000005
97,5896648.253182392
134,1.6452759155072273e-7
2,1, 1,21, 0,13, 0.00,60.00,WinterDesignDay
7,-21.2
8,5896648.253182391
69,0.0
94,20.000000000000005
97,5896648.253182392
134,1.6452759155072273e-7
2,1, 1,21, 0,14, 0.00,60.00,WinterDesignDay
7,-21.2
8,5896648.253182391
69,0.0
94,20.000000000000005
97,5896648.253182392
134,1.6452759155072273e-7
2,1, 1,21, 0,15, 0.00,60.00,WinterDesignDay
7,-21.2
8,5896648.253182391
69,0.0
94,20.000000000000005
97,5896648.253182392
134,1.6452759155072273e-7
2,1, 1,21, 0,16, 0.00,60.00,WinterDesignDay
7,-21.2
8,5896648.253182391
69,0.0
94,20.000000000000005
97,5896648.253182392
134,1.6452759155072273e-7
2,1, 1,21, 0,17, 0.00,60.00,WinterDesignDay
7,-21.2
8,5896648.253182391
69,0.0
94,20.000000000000005
97,5896648.253182392
134,1.6452759155072273e-7
2,1, 1,21, 0,18, 0.00,60.00,WinterDesignDay
7,-21.2
8,5896648.253182391
69,0.0
94,20.000000000000005
97,5896648.253182392
134,1.6452759155072273e-7
2,1, 1,21, 0,19, 0.00,60.00,WinterDesignDay
7,-21.2
8,5896648.253182391
69,0.0
94,20.000000000000005
97,5896648.253182392
134,1.6452759155072273e-7
2,1, 1,21, 0,20, 0.00,60.00,WinterDesignDay
7,-21.2
8,5896648.253182391
69,0.0
94,20.000000000000005
97,5896648.253182392
134,1.6452759155072273e-7
2,1, 1,21, 0,21, 0.00,60.00,WinterDesignDay
7,-21.2
8,5896648.253182391
69,0.0
94,20.000000000000005
97,5896648.253182392
134,1.6452759155072273e-7
2,1, 1,21, 0,22, 0.00,60.00,WinterDesignDay
7,-21.2
8,5896648.253182391
69,0.0
94,20.000000000000005
97,5896648.253182392
134,1.6452759155072273e-7
2,1, 1,21, 0,23, 0.00,60.00,WinterDesignDay
7,-21.2
8,5896648.253182391
69,0.0
94,20.000000000000005
97,5896648.253182392
134,1.6452759155072273e-7
2,1, 1,21, 0,24, 0.00,60.00,WinterDesignDay
7,-21.2
8,5896648.253182391
69,0.0
94,20.000000000000005
97,5896648.253182392
134,1.6452759155072273e-7
End of Data
 Number of Records Written=         288
