Program Version,EnergyPlus, Version 9.0.1-bb7ca4f0da, YMD=2019.07.17 19:51
1,5,Environment Title[],Latitude[deg],Longitude[deg],Time Zone[],Elevation[m]
2,8,Day of Simulation[],Month[],Day of Month[],DST Indicator[1=yes 0=no],Hour[],StartMinute[],EndMinute[],DayType
3,5,Cumulative Day of Simulation[],Month[],Day of Month[],DST Indicator[1=yes 0=no],DayType  ! When Daily Meters Requested
4,2,Cumulative Days of Simulation[],Month[]  ! When Monthly Meters Requested
5,1,Cumulative Days of Simulation[] ! When Run Period Meters Requested
6,1,Calendar Year of Simulation[] ! When Annual Meters Requested
97,1,DistrictHeating:Facility [J] !Hourly
134,1,DistrictCooling:Facility [J] !Hourly
End of Data Dictionary
1,CHICAGO_IL_USA COOLING .4% CONDITIONS DB=>MWB,  41.78, -87.75,  -6.00, 190.00
2,1, 7,21, 0, 1, 0.00,60.00,SummerDesignDay
97,0.0
134,0.0
2,1, 7,21, 0, 2, 0.00,60.00,SummerDesignDay
97,0.0
134,0.0
2,1, 7,21, 0, 3, 0.00,60.00,SummerDesignDay
97,0.0
134,0.0
2,1, 7,21, 0, 4, 0.00,60.00,SummerDesignDay
97,0.0
134,0.0
2,1, 7,21, 0, 5, 0.00,60.00,SummerDesignDay
97,0.0
134,0.0
2,1, 7,21, 0, 6, 0.00,60.00,SummerDesignDay
97,0.0
134,0.0
2,1, 7,21, 0, 7, 0.00,60.00,SummerDesignDay
97,0.0
134,0.0
2,1, 7,21, 0, 8, 0.00,60.00,SummerDesignDay
97,0.0
134,0.0
2,1, 7,21, 0, 9, 0.00,60.00,SummerDesignDay
97,7.175060545705492e-9
134,279125.93928176377
2,1, 7,21, 0,10, 0.00,60.00,SummerDesignDay
97,1.460591647628462e-8
134,907210.9820131668
2,1, 7,21, 0,11, 0.00,60.00,SummerDesignDay
97,3.448121788096614e-8
134,1371016.4269107369
2,1, 7,21, 0,12, 0.00,60.00,SummerDesignDay
97,4.282014742784668e-8
134,1626342.1548292947
2,1, 7,21, 0,13, 0.00,60.00,SummerDesignDay
97,1.4017587091075257e-8
134,1750387.0406295176
2,1, 7,21, 0,14, 0.00,60.00,SummerDesignDay
97,3.141167326248251e-8
134,1921664.1688543494
2,1, 7,21, 0,15, 0.00,60.00,SummerDesignDay
97,8.451479516224936e-8
134,2009491.9419094469
2,1, 7,21, 0,16, 0.00,60.00,SummerDesignDay
97,4.660591912397649e-8
134,1918168.5111683044
2,1, 7,21, 0,17, 0.00,60.00,SummerDesignDay
97,5.366587174648885e-8
134,1635419.6336241973
2,1, 7,21, 0,18, 0.00,60.00,SummerDesignDay
97,3.084892341576051e-8
134,1286232.4722860358
2,1, 7,21, 0,19, 0.00,60.00,SummerDesignDay
97,1.9031176634598525e-8
134,750213.9514300138
2,1, 7,21, 0,20, 0.00,60.00,SummerDesignDay
97,2.5195845410053154e-9
134,76911.3089064289
2,1, 7,21, 0,21, 0.00,60.00,SummerDesignDay
97,0.0
134,0.0
2,1, 7,21, 0,22, 0.00,60.00,SummerDesignDay
97,0.0
134,0.0
2,1, 7,21, 0,23, 0.00,60.00,SummerDesignDay
97,0.0
134,0.0
2,1, 7,21, 0,24, 0.00,60.00,SummerDesignDay
97,0.0
134,0.0
1,CHICAGO_IL_USA HEATING 99.6% CONDITIONS,  41.78, -87.75,  -6.00, 190.00
2,1, 1,21, 0, 1, 0.00,60.00,WinterDesignDay
97,5896648.253182392
134,1.6452759155072273e-7
2,1, 1,21, 0, 2, 0.00,60.00,WinterDesignDay
97,5896648.253182392
134,1.6452759155072273e-7
2,1, 1,21, 0, 3, 0.00,60.00,WinterDesignDay
97,5896648.253182392
134,1.6452759155072273e-7
2,1, 1,21, 0, 4, 0.00,60.00,WinterDesignDay
97,5896648.253182392
134,1.6452759155072273e-7
2,1, 1,21, 0, 5, 0.00,60.00,WinterDesignDay
97,5896648.253182392
134,1.6452759155072273e-7
2,1, 1,21, 0, 6, 0.00,60.00,WinterDesignDay
97,5896648.253182392
134,1.6452759155072273e-7
2,1, 1,21, 0, 7, 0.00,60.00,WinterDesignDay
97,5896648.253182392
134,1.6452759155072273e-7
2,1, 1,21, 0, 8, 0.00,60.00,WinterDesignDay
97,5896648.253182392
134,1.6452759155072273e-7
2,1, 1,21, 0, 9, 0.00,60.00,WinterDesignDay
97,5896648.253182392
134,1.6452759155072273e-7
2,1, 1,21, 0,10, 0.00,60.00,WinterDesignDay
97,5896648.253182392
134,1.6452759155072273e-7
2,1, 1,21, 0,11, 0.00,60.00,WinterDesignDay
97,5896648.253182392
134,1.6452759155072273e-7
2,1, 1,21, 0,12, 0.00,60.00,WinterDesignDay
97,5896648.253182392
134,1.6452759155072273e-7
2,1, 1,21, 0,13, 0.00,60.00,WinterDesignDay
97,5896648.253182392
134,1.6452759155072273e-7
2,1, 1,21, 0,14, 0.00,60.00,WinterDesignDay
97,5896648.253182392
134,1.6452759155072273e-7
2,1, 1,21, 0,15, 0.00,60.00,WinterDesignDay
97,5896648.253182392
134,1.6452759155072273e-7
2,1, 1,21, 0,16, 0.00,60.00,WinterDesignDay
97,5896648.253182392
134,1.6452759155072273e-7
2,1, 1,21, 0,17, 0.00,60.00,WinterDesignDay
97,5896648.253182392
134,1.6452759155072273e-7
2,1, 1,21, 0,18, 0.00,60.00,WinterDesignDay
97,5896648.253182392
134,1.6452759155072273e-7
2,1, 1,21, 0,19, 0.00,60.00,WinterDesignDay
97,5896648.253182392
134,1.6452759155072273e-7
2,1, 1,21, 0,20, 0.00,60.00,WinterDesignDay
97,5896648.253182392
134,1.6452759155072273e-7
2,1, 1,21, 0,21, 0.00,60.00,WinterDesignDay
97,5896648.253182392
134,1.6452759155072273e-7
2,1, 1,21, 0,22, 0.00,60.00,WinterDesignDay
97,5896648.253182392
134,1.6452759155072273e-7
2,1, 1,21, 0,23, 0.00,60.00,WinterDesignDay
97,5896648.253182392
134,1.6452759155072273e-7
2,1, 1,21, 0,24, 0.00,60.00,WinterDesignDay
97,5896648.253182392
134,1.6452759155072273e-7
End of Data
 Number of Records Written=          96
